 Gaussian 09, Revision D.01,
 Gaussian 09:  EM64L-G09RevD.01 24-Apr-2013

 -----------------------
 # hf/3-21g freq=noraman
 -----------------------

 -------------------
 Title Card Required
 -------------------
 Symbolic Z-matrix:
 Charge =  0 Multiplicity = 1

                         Standard orientation:
 ---------------------------------------------------------------------
 Center     Atomic      Atomic             Coordinates (Angstroms)
 Number     Number       Type             X           Y           Z
 ---------------------------------------------------------------------
      1          6           0        0.000000    0.000000    0.824163
      2          1           0        0.898658    0.000000    1.402601
      3          1           0       -0.898658    0.000000    1.402601
      4         17           0        0.000000    1.524941   -0.227946
      5         17           0        0.000000   -1.524941   -0.227946
 ---------------------------------------------------------------------

 SCF Done:  E(RHF) =  -953.390599998     A.U. after   11 cycles

 The electronic state is 1-A1.
 Alpha  occ. eigenvalues -- -104.12275-104.12252 -11.33445 -10.51736 -10.51658
 Alpha  occ. eigenvalues --   -7.98070  -7.98069  -7.97636  -7.97623  -7.97618
 Alpha  occ. eigenvalues --   -7.97613  -1.18827  -1.09605  -0.92095  -0.69930
 Alpha  occ. eigenvalues --   -0.60514  -0.56535  -0.47732  -0.47339  -0.46031
 Alpha  occ. eigenvalues --   -0.45165
 Alpha virt. eigenvalues --    0.12052   0.17054   0.25902   0.28592   0.65121
 Alpha virt. eigenvalues --    0.72588   0.75924   0.76034   0.79607   0.81696
 Alpha virt. eigenvalues --    0.81898   0.95892   0.96210   0.97473   1.06171

 Mulliken charges:
               1
     1  C   -0.703429
     2  H    0.328942
     3  H    0.328942
     4  Cl   0.022773
     5  Cl   0.022773
 Sum of Mulliken charges =   0.00000

 Dipole moment (field-independent basis, Debye):
    X=              0.0000    Y=              0.0000    Z=              2.5018  Tot=              2.5018
 Quadrupole moment (field-independent basis, Debye-Ang):
   XX=            -31.9267   YY=            -36.8912   ZZ=            -30.2255
   XY=              0.0000   XZ=              0.0000   YZ=              0.0000

  Exact polarizability:  14.165   0.000  43.660   0.000   0.000  22.718
 Approx polarizability:  11.499   0.000  32.712   0.000   0.000  18.983

                      1                      2                      3
                     A1                     A1                     B2
 Frequencies --    277.9735               673.6249               730.4283
 Red. masses --     20.0519                 7.4463                 8.5211
 Frc consts  --      0.9129                 1.9908                 2.6786
 IR Inten    --      1.1503                24.3721               151.1781

                      4                      5                      6
                     B1                     A2                     B2
 Frequencies --    934.4559              1256.0434              1385.2816
 Red. masses --      1.3116                 1.0176                 1.1088
 Frc consts  --      0.6748                 0.9459                 1.2536
 IR Inten    --      1.8655                 0.0000                64.5689

                      7                      8                      9
                     A1                     A1                     B1
 Frequencies --   1587.8520              3361.4312              3467.0128
 Red. masses --      1.0750                 1.0514                 1.1201
 Frc consts  --      1.5970                 6.9998                 7.9324
 IR Inten    --      0.0734                 1.4138                 2.5695

 - Thermochemistry -
 -------------------
 Temperature   298.150 Kelvin.  Pressure   1.00000 Atm.
 Atom     1 has atomic number  6 and mass  12.00000

 Molecular mass:    83.95336 amu.
 Principal axes and moments of inertia in atomic units:
                           1         2         3
     Eigenvalues --    61.61571 586.59776 636.58743
           X            0.00000   0.00000   1.00000
           Y            1.00000   0.00000   0.00000
           Z            0.00000   1.00000   0.00000
 This molecule is an asymmetric top.
 Rotational symmetry number  2.
 Rotational temperatures (Kelvin)      1.40571     0.14765     0.13606
 Rotational constants (GHZ):          29.29028     3.07662     2.83502
 Zero-point vibrational energy      81789.3 (Joules/Mol)
                                   19.54811 (Kcal/Mol)
 Warning -- explicit consideration of   1 degrees of freedom as
           vibrations may cause significant error
 Vibrational temperatures:    399.94   969.19  1050.92  1344.47  1807.16
          (Kelvin)           1993.11  2284.56  4836.34  4988.25

 Zero-point correction=                           0.031152 (Hartree/Particle)
 Thermal correction to Energy=                    0.034730
 Thermal correction to Enthalpy=                  0.035674
 Thermal correction to Gibbs Free Energy=         0.004883
 Sum of electronic and zero-point Energies=           -953.359448
 Sum of electronic and thermal Energies=              -953.355870
 Sum of electronic and thermal Enthalpies=            -953.354926
 Sum of electronic and thermal Free Energies=         -953.385717

                     E (Thermal)             CV                S
                      KCal/Mol        Cal/Mol-Kelvin    Cal/Mol-Kelvin
 Total                   21.793             10.120             64.804
 Electronic               0.000              0.000              0.000
 Translational            0.889              2.981             39.197
 Rotational               0.889              2.981             23.268
 Vibrational             20.016              4.159              2.339
 Vibration     1          0.679              1.714              1.546

 Optimization completed.
    -- Stationary point found.
 Normal termination of Gaussian 09 at Wed Dec  2 15:38:48 2020.
